version 3
run General-0-20230508-22:39:35-91261
attr configname General
attr datetime 20230508-22:39:35
attr datetimef 20230508-223935
attr experiment General
attr inifile omnetpp.ini
attr iterationvars ""
attr iterationvarsd ""
attr iterationvarsf ""
attr measurement ""
attr network Network
attr processid 91261
attr repetition 0
attr replication #0
attr resultdir results
attr runnumber 0
attr seedset 0
config network Network
config sim-time-limit 200s
config Network.nodeTx.gen.generationInterval exponential(0.2)
config Network.nodeTx.gen.packetByteSize 12500
config Network.queue.bufferSize 200
config Network.nodeRx.queue.bufferSize 200
config Network.nodeTx.queue.bufferSize 2000000
config Network.queue.serviceTime 0
config Network.nodeTx.queue.serviceTime 0
config Network.nodeRx.queue.serviceTime 0

vector 0 Network.nodeTx.gen packetGen ETV
vector 1 Network.nodeTx.queue bufferSize ETV
vector 2 Network.queue bufferSize ETV
vector 3 Network.nodeRx.queue bufferSize ETV
vector 4 Network.nodeRx.sink Delay ETV
vector 5 Network.nodeRx.sink PacketUsed ETV
0	1	0.159174900913	1
0	7	0.33888697861	1
0	17	0.590073130219	1
0	31	0.961993972634	1
0	39	1.146638598928	1
0	52	1.536947666105	1
0	60	1.694387894101	1
0	73	2.070180704942	1
0	81	2.180390402276	1
0	89	2.375791687555	1
0	99	2.583423547688	1
0	104	2.680449180432	1
0	113	2.795553019809	1
0	116	2.866184847637	1
0	134	3.310889732044	1
0	137	3.322566665863	1
0	161	3.985549121849	1
0	164	4.049220350017	1
0	171	4.145940771007	1
0	175	4.275830040657	1
0	191	4.589609264182	1
0	204	4.924051504247	1
0	211	5.07458632691	1
0	221	5.205362840354	1
0	229	5.373249410934	1
0	234	5.473023812737	1
0	255	5.992674629907	1
0	269	6.354348482762	1
0	272	6.369085553855	1
0	276	6.451401153104	1
0	281	6.469633358329	1
0	290	6.678555859991	1
0	292	6.682640977671	1
0	298	6.774490605122	1
0	314	7.13198813781	1
0	336	7.762022123545	1
0	349	8.063178975272	1
0	352	8.093425146005	1
0	368	8.501487997593	1
0	383	8.909666440775	1
0	396	9.678710814603	1
0	402	9.807052649139	1
0	412	10.128100560551	1
0	426	10.45090097553	1
0	434	10.574686867455	1
0	439	10.721679751693	1
0	452	11.024986946491	1
0	464	11.252174734833	1
0	467	11.277349616721	1
0	479	11.532395157166	1
0	489	11.736681532036	1
0	499	11.911145771044	1
0	502	11.942091707144	1
0	511	12.096258638837	1
0	532	12.675142734434	1
0	543	12.959415670453	1
0	554	13.106981128804	1
0	557	13.129370360931	1
0	561	13.236483504977	1
0	570	13.364822445383	1
0	574	13.426278515814	1
0	579	13.46751917222	1
0	594	13.76517013737	1
0	604	14.032228174295	1
0	612	14.154044658932	1
0	617	14.202854357079	1
0	628	14.370921298201	1
0	631	14.399976903659	1
0	633	14.403770617499	1
0	640	14.482124779634	1
0	651	14.674400967447	1
0	653	14.706828265336	1
0	664	14.896227600771	1
0	666	14.946515987186	1
0	677	15.13842558266	1
0	683	15.236136992522	1
0	704	15.811719996778	1
0	722	16.277502671621	1
0	732	16.506530462561	1
0	739	16.626079677925	1
0	745	16.715183376935	1
0	756	16.905082293634	1
0	763	17.019988774982	1
0	781	17.485258987321	1
0	791	17.724480547212	1
0	794	17.745392792367	1
0	796	17.75781585046	1
0	821	18.457858587351	1
0	834	18.677641080861	1
0	844	18.889407907159	1
0	854	19.111527396296	1
0	857	19.1490126095	1
0	861	19.196253950717	1
0	868	19.284934756441	1
0	872	19.312540494127	1
0	885	19.590349032085	1
0	892	19.666141424942	1
0	900	19.853353736896	1
0	906	19.943774148941	1
0	912	20.022396660402	1
0	923	20.191282219108	1
0	926	20.199118850391	1
0	933	20.314583712552	1
0	944	20.515757913585	1
0	971	21.40665728282	1
0	991	22.045246611231	1
0	997	22.066773632862	1
0	1008	22.278338915532	1
0	1011	22.325199219287	1
0	1022	22.526803068371	1
0	1027	22.561985777456	1
0	1058	23.634005847505	1
0	1068	23.845754390524	1
0	1078	24.020137561249	1
0	1084	24.078553667902	1
0	1090	24.185566603319	1
0	1097	24.311154919517	1
0	1105	24.439911119838	1
0	1111	24.495966521534	1
0	1122	24.691339336348	1
0	1125	24.725964827577	1
0	1131	24.808465073561	1
0	1133	24.831856155519	1
0	1144	25.056489815826	1
0	1158	25.270104255256	1
0	1161	25.346415423931	1
0	1167	25.376157877781	1
0	1181	25.677484944436	1
0	1184	25.721261063737	1
0	1205	26.318699042107	1
0	1210	26.410701833655	1
0	1221	26.627955709831	1
0	1236	26.972022041374	1
0	1239	26.97475495706	1
0	1241	26.995183933365	1
0	1252	27.190204320196	1
0	1266	27.554168104053	1
0	1278	27.778130977204	1
0	1281	27.798337932266	1
0	1305	28.513055606735	1
0	1330	29.262861898652	1
0	1345	29.68392615881	1
0	1352	29.810393478089	1
0	1360	29.952910196756	1
0	1385	30.705295653657	1
0	1388	30.716761038942	1
0	1397	30.902456738322	1
0	1405	31.02244611565	1
0	1418	31.29129517008	1
0	1421	31.295333195709	1
0	1423	31.303328455521	1
0	1429	31.419904133294	1
0	1434	31.486386181487	1
0	1464	32.264700206056	1
0	1467	32.290311559118	1
0	1473	32.379395451502	1
0	1475	32.449630669378	1
0	1486	32.580759926251	1
0	1488	32.606037653536	1
0	1499	32.839412358846	1
0	1506	32.915952548618	1
0	1522	33.340799988018	1
0	1529	33.447776863169	1
0	1547	33.948559219786	1
0	1552	33.961818700082	1
0	1554	34.010697789698	1
0	1565	34.246535695111	1
0	1576	34.413104398324	1
0	1586	34.580323904718	1
0	1601	34.980972009219	1
0	1604	35.042654977239	1
0	1615	35.184904564682	1
0	1623	35.333056354771	1
0	1640	35.830172826166	1
0	1643	35.84990288785	1
0	1662	36.357963789442	1
0	1672	36.529542917657	1
0	1675	36.546897014125	1
0	1696	37.07674819986	1
0	1699	37.141816282966	1
0	1705	37.218528325786	1
0	1707	37.220408475919	1
0	1718	37.440577657937	1
0	1734	37.810043188137	1
0	1737	37.838309330849	1
0	1748	38.046665461685	1
0	1761	38.298652223707	1
0	1776	38.666908718004	1
0	1779	38.735239551409	1
0	1785	38.796743096161	1
0	1787	38.837213183874	1
0	1794	38.938653208525	1
0	1805	39.115279016917	1
0	1816	39.276238496877	1
0	1819	39.280300988636	1
0	1821	39.316351439033	1
0	1839	39.669499653516	1
0	1844	39.761845832725	1
0	1846	39.762787140823	1
0	1850	39.794455442069	1
0	1861	40.020982270463	1
0	1872	40.189598876893	1
0	1875	40.252543209064	1
0	1889	40.495844939751	1
0	1901	40.761596514501	1
0	1904	40.829665862148	1
0	1928	41.484694497691	1
0	1935	41.598275328387	1
0	1938	41.655479522889	1
0	1952	41.937684404748	1
0	1962	42.109362998314	1
0	1969	42.210231759632	1
0	1979	42.389549933789	1
0	1994	42.842296648961	1
0	2004	43.012140811274	1
0	2014	43.215872557278	1
0	2020	43.266356555856	1
0	2036	43.710657935551	1
0	2056	44.321114266928	1
0	2066	44.549035859635	1
0	2076	44.667560665125	1
0	2083	44.786836543991	1
0	2098	45.161528519962	1
0	2121	45.930129836611	1
0	2133	46.17057755006	1
0	2136	46.195282879532	1
0	2141	46.265886906187	1
0	2154	46.5572506179	1
0	2169	46.893435058809	1
0	2176	46.999579558132	1
0	2184	47.100583307683	1
0	2194	47.325639711052	1
0	2209	47.751539590266	1
0	2214	47.80902168548	1
0	2225	47.983128850745	1
0	2228	48.058276619226	1
0	2247	48.485242709223	1
0	2267	49.158116799833	1
0	2279	49.393993386562	1
0	2289	49.571565668649	1
0	2299	49.829947522409	1
0	2309	50.045514499236	1
0	2319	50.184674391416	1
0	2327	50.337047945675	1
0	2349	50.962141617207	1
0	2352	51.014553065542	1
0	2359	51.221112467671	1
0	2367	51.321574627323	1
0	2374	51.43185382535	1
0	2384	51.624744538449	1
0	2394	51.81122511453	1
0	2402	51.940046056195	1
0	2405	51.943922012465	1
0	2414	52.070947555591	1
0	2418	52.142732998765	1
0	2431	52.394541702218	1
0	2441	52.610405741949	1
0	2447	52.678338688465	1
0	2451	52.746858613405	1
0	2457	52.843585750723	1
0	2468	53.036060761877	1
0	2481	53.312656603184	1
0	2488	53.424648817199	1
0	2503	53.846138338189	1
0	2509	53.875253133879	1
0	2511	53.896962553578	1
0	2517	53.967807380027	1
0	2519	53.987191930942	1
0	2528	54.15596962546	1
0	2532	54.243375228215	1
0	2543	54.422121043876	1
0	2554	54.582631441028	1
0	2563	54.753447388157	1
0	2566	54.760288071829	1
0	2579	54.972089948905	1
0	2602	55.666597044761	1
0	2612	55.877766966493	1
0	2615	55.955192984923	1
0	2624	56.068115085147	1
0	2628	56.118131384143	1
0	2646	56.571858182681	1
0	2649	56.602316907732	1
0	2656	56.693951484524	1
0	2658	56.714415607495	1
0	2664	56.828907917781	1
0	2692	57.656469869883	1
0	2710	58.101452801328	1
0	2713	58.161765983973	1
0	2729	58.489945499558	1
0	2736	58.643960871467	1
0	2749	58.887364770534	1
0	2756	59.006179470199	1
0	2759	59.027301998925	1
0	2761	59.048278366045	1
0	2782	59.552134792062	1
0	2787	59.639003923251	1
0	2801	59.889525428233	1
0	2808	60.016217951778	1
0	2848	61.369296055765	1
0	2861	61.73724261278	1
0	2866	61.769616630122	1
0	2882	62.239652088072	1
0	2897	62.644833851493	1
0	2900	62.65249043407	1
0	2905	62.687955549099	1
0	2912	62.829939134544	1
0	2921	63.021132419328	1
0	2927	63.057640139705	1
0	2929	63.084076881628	1
0	2945	63.38604157275	1
0	2960	63.762827350067	1
0	2975	64.163224649172	1
0	2987	64.492568469437	1
0	2995	64.598569045064	1
0	3005	64.76694523741	1
0	3008	64.797103439449	1
0	3014	64.901677445467	1
0	3016	64.908434802577	1
0	3018	64.92276987944	1
0	3048	65.732739247201	1
0	3061	65.971826960457	1
0	3066	66.065281473739	1
0	3075	66.186141288109	1
0	3082	66.295112713738	1
0	3095	66.5511795545	1
0	3098	66.561562064937	1
0	3114	66.964116612178	1
0	3119	67.055098981136	1
0	3143	67.797091099517	1
0	3146	67.800444652715	1
0	3162	68.187760100213	1
0	3165	68.240225962046	1
0	3167	68.24258260843	1
0	3182	68.532141424828	1
0	3188	68.621391988932	1
0	3209	69.198314339352	1
0	3221	69.460174012157	1
0	3232	69.737432282561	1
0	3238	69.775091277605	1
0	3243	69.858013786137	1
0	3249	70.005240006134	1
0	3260	70.139732109501	1
0	3263	70.150906120079	1
0	3265	70.233701904614	1
0	3272	70.278329746234	1
0	3274	70.317895647726	1
0	3276	70.32163474181	1
0	3282	70.359138532051	1
0	3298	70.674821076472	1
0	3304	70.799340545268	1
0	3311	70.850041686297	1
0	3329	71.265247898386	1
0	3334	71.349979318657	1
0	3353	71.926888176338	1
0	3373	72.453331948848	1
0	3383	72.640759692393	1
0	3393	72.884519053062	1
0	3403	73.066111858527	1
0	3406	73.072583219456	1
0	3419	73.378749464709	1
0	3422	73.414740933019	1
0	3431	73.553380886927	1
0	3442	73.747677318546	1
0	3445	73.758013899705	1
0	3452	73.930198627041	1
0	3465	74.170392808349	1
0	3468	74.224726422417	1
0	3499	75.200553000016	1
0	3519	75.744822651199	1
0	3522	75.807016212193	1
0	3533	75.997382153701	1
0	3543	76.224701452752	1
0	3553	76.378117383666	1
0	3568	76.777551777164	1
0	3578	76.955827492546	1
0	3588	77.233762905301	1
0	3601	77.495719979573	1
0	3618	78.163306846344	1
0	3621	78.238084145525	1
0	3628	78.399680156205	1
0	3636	78.501253180742	1
0	3639	78.549003755312	1
0	3643	78.596108669996	1
0	3647	78.646428392619	1
0	3652	78.687634802316	1
0	3656	78.737006656076	1
0	3681	79.314821774456	1
0	3691	79.483417529539	1
0	3701	79.752487016186	1
0	3711	79.872822813491	1
0	3718	80.007671727418	1
0	3741	80.710567463525	1
0	3744	80.762170016313	1
0	3757	80.990397596885	1
0	3760	81.04909912727	1
0	3765	81.066929985269	1
0	3767	81.078886177852	1
0	3771	81.090500650275	1
0	3777	81.204480163336	1
0	3784	81.338302908074	1
0	3790	81.413036866953	1
0	3810	81.838770885859	1
0	3823	82.07714250659	1
0	3845	82.826481429355	1
0	3851	82.921364687422	1
0	3862	83.113652601736	1
0	3865	83.153246148803	1
0	3874	83.309641292978	1
0	3878	83.314638963641	1
0	3894	83.700310991017	1
0	3897	83.714234525232	1
0	3910	83.986620870093	1
0	3920	84.214128571201	1
0	3928	84.344374717585	1
0	3938	84.465290961252	1
0	3948	84.691362070434	1
0	3955	84.845186030653	1
0	3965	85.031998097174	1
0	3983	85.485966100331	1
0	3993	85.736806754349	1
0	4023	86.664737259624	1
0	4030	86.791523263503	1
0	4033	86.840421467912	1
0	4040	86.962188050659	1
0	4053	87.179768937382	1
0	4068	87.653552571549	1
0	4074	87.714673551912	1
0	4076	87.74419275849	1
0	4078	87.748366202212	1
0	4084	87.800436484521	1
0	4100	88.084513175638	1
0	4116	88.511225833133	1
0	4121	88.588363371942	1
0	4137	89.057932124228	1
0	4143	89.154659801726	1
0	4154	89.362229816824	1
0	4164	89.539730202521	1
0	4169	89.618244808159	1
0	4185	89.973873475526	1
0	4193	90.12054701016	1
0	4203	90.318847868739	1
0	4206	90.318858939118	1
0	4222	90.731023187294	1
0	4227	90.805775846057	1
0	4234	90.869690777032	1
0	4240	90.980524942842	1
0	4254	91.30046883121	1
0	4269	91.733621567385	1
0	4274	91.774691121132	1
0	4285	92.002502651267	1
0	4305	92.613139585186	1
0	4313	92.734948507728	1
0	4325	92.967571164413	1
0	4333	93.099671780363	1
0	4336	93.148215479097	1
0	4349	93.459148066659	1
0	4369	94.048044122144	1
0	4375	94.100172148019	1
0	4387	94.362673746612	1
0	4402	94.7872230774	1
0	4405	94.845813369097	1
0	4412	94.921099239401	1
0	4414	94.969083943288	1
0	4437	95.600503051571	1
0	4446	95.746548584619	1
0	4453	95.874186305738	1
0	4456	95.879385854777	1
0	4470	96.128056010367	1
0	4473	96.174561014044	1
0	4477	96.207935942291	1
0	4484	96.318503616421	1
0	4497	96.580698090053	1
0	4502	96.674433385248	1
0	4513	96.882274512564	1
0	4523	97.006840374517	1
0	4526	97.055224303471	1
0	4533	97.120267507066	1
0	4535	97.161539105787	1
0	4546	97.338296236994	1
0	4559	97.667911471626	1
0	4574	98.066719311881	1
0	4587	98.341655302641	1
0	4590	98.366661820626	1
0	4601	98.591353920536	1
0	4611	98.737058689083	1
0	4616	98.80189851178	1
0	4618	98.830226918739	1
0	4622	98.868679206907	1
0	4636	99.121041741604	1
0	4647	99.36484161064	1
0	4654	99.46569759729	1
0	4662	99.590104981106	1
0	4672	99.756780629235	1
0	4687	100.123833309823	1
0	4690	100.164325062563	1
0	4694	100.210173927604	1
0	4698	100.241469081681	1
0	4700	100.277523941597	1
0	4709	100.411432059769	1
0	4713	100.438100184424	1
0	4720	100.525991262523	1
0	4731	100.782076133319	1
0	4754	101.346203323002	1
0	4757	101.352388581314	1
0	4770	101.6422995366	1
0	4783	101.917168139484	1
0	4793	102.193360758617	1
0	4798	102.21279429429	1
0	4814	102.680892686421	1
0	4820	102.729932304949	1
0	4822	102.747354021601	1
0	4837	103.024017314831	1
0	4845	103.184695667364	1
0	4857	103.447820919023	1
0	4867	103.623463934767	1
0	4870	103.632801483496	1
0	4891	104.286500763661	1
0	4897	104.333431933512	1
0	4903	104.402535850254	1
0	4905	104.470166793223	1
0	4912	104.525272380631	1
0	4923	104.751456076469	1
0	4925	104.77259351129	1
0	4927	104.785616084247	1
0	4931	104.788929303131	1
0	4940	104.951157507577	1
0	4962	105.481669210681	1
0	4965	105.483525815557	1
0	4979	105.7052077664	1
0	4991	106.063205687296	1
0	5004	106.370771430191	1
0	5031	107.201965649304	1
0	5034	107.268147625539	1
0	5048	107.511285720211	1
0	5055	107.687861829202	1
0	5061	107.727950268219	1
0	5063	107.741168670358	1
0	5069	107.88481796638	1
0	5080	108.01777951629	1
0	5089	108.191492662583	1
0	5114	108.950297419201	1
0	5126	109.260099755032	1
0	5141	109.678411069557	1
0	5151	109.864933440611	1
0	5157	109.947479413956	1
0	5161	109.996762578399	1
0	5184	110.648546773836	1
0	5192	110.77000263156	1
0	5197	110.822718054127	1
0	5213	111.244895809004	1
0	5233	111.841335944099	1
0	5241	111.97689634451	1
0	5261	112.544224383185	1
0	5271	112.795671782299	1
0	5286	113.116763534913	1
0	5293	113.24993203224	1
0	5303	113.449024760913	1
0	5313	113.695600853519	1
0	5331	114.110353146139	1
0	5338	114.248240053709	1
0	5344	114.317590714467	1
0	5357	114.689877043063	1
0	5372	115.067897382682	1
0	5378	115.111116626001	1
0	5389	115.303519011319	1
0	5399	115.600367507849	1
0	5404	115.603032556815	1
0	5428	116.334964022968	1
0	5433	116.420271185375	1
0	5449	116.816820966296	1
0	5452	116.848887785193	1
0	5467	117.152101571158	1
0	5484	117.953691502133	1
0	5495	118.794063387383	1
0	5501	118.924222855855	1
0	5511	119.204357995247	1
0	5520	119.341946690939	1
0	5523	119.342757955203	1
0	5534	119.546795372794	1
0	5539	119.609594952407	1
0	5543	119.701553215962	1
0	5552	119.807246661622	1
0	5554	119.836691669085	1
0	5563	119.948493203083	1
0	5576	120.293819879031	1
0	5582	120.364539194084	1
0	5588	120.406645851725	1
0	5595	120.509188780251	1
0	5601	120.65239784385	1
0	5603	120.678113891305	1
0	5610	120.728916166975	1
0	5638	121.518442820487	1
0	5641	121.539036493231	1
0	5647	121.643252257448	1
0	5663	122.03963032567	1
0	5673	122.208057586237	1
0	5696	122.929845787234	1
0	5701	123.014044446844	1
0	5722	123.662037040224	1
0	5735	123.973095912295	1
0	5752	124.447173428418	1
0	5758	124.553165744272	1
0	5768	124.85065169514	1
0	5771	124.939681563021	1
0	5779	125.020718139489	1
0	5785	125.122716306259	1
0	5787	125.139632204611	1
0	5794	125.211490985636	1
0	5800	125.316084516367	1
0	5816	125.614610949205	1
0	5821	125.667465042032	1
0	5840	126.188779402496	1
0	5843	126.217204504775	1
0	5849	126.295904987	1
0	5851	126.30688646151	1
0	5874	126.917858417311	1
0	5887	127.17648798907	1
0	5890	127.179297307318	1
0	5892	127.18159595736	1
0	5898	127.334080694203	1
0	5914	127.628521525802	1
0	5919	127.701169969582	1
0	5923	127.732956605513	1
0	5942	128.161833698416	1
0	5945	128.178406153	1
0	5947	128.23610869507	1
0	5951	128.254883604527	1
0	5964	128.481159358048	1
0	5975	128.704136842429	1
0	5988	129.036729998564	1
0	5993	129.093034803058	1
0	6000	129.206213711385	1
0	6006	129.315345254338	1
0	6020	129.594319072591	1
0	6030	129.75732273877	1
0	6042	130.111246703412	1
0	6057	130.50525821653	1
0	6063	130.60055393305	1
0	6076	130.860243060171	1
0	6079	130.880549876959	1
0	6081	130.943581882702	1
0	6088	131.002762257352	1
0	6090	131.030955834235	1
0	6101	131.210221675239	1
0	6103	131.221614981732	1
0	6112	131.351049922541	1
0	6116	131.422842186216	1
0	6125	131.556702760613	1
0	6129	131.617497072459	1
0	6135	131.740184890377	1
0	6146	131.861997781442	1
0	6153	132.010714419797	1
0	6164	132.240662697347	1
0	6173	132.357347451554	1
0	6184	132.595246701821	1
0	6199	132.97821515335	1
0	6202	133.044895821025	1
0	6211	133.158529917773	1
0	6217	133.254113515275	1
0	6231	133.60485644428	1
0	6234	133.644827551864	1
0	6243	133.787229164989	1
0	6256	134.097978265395	1
0	6259	134.116045714211	1
0	6261	134.127751294	1
0	6272	134.3435366757	1
0	6286	134.582339349819	1
0	6289	134.62862354421	1
0	6302	134.930266590535	1
0	6317	135.306090277377	1
0	6330	135.606572836119	1
0	6340	135.835310960236	1
0	6345	135.895375976293	1
0	6347	135.934668353472	1
0	6354	136.028289644119	1
0	6358	136.042773466142	1
0	6367	136.219925595348	1
0	6369	136.221872677216	1
0	6375	136.285589446792	1
0	6395	136.73080624468	1
0	6401	136.823484250188	1
0	6407	136.852134854464	1
0	6409	136.896028486643	1
0	6425	137.198120806888	1
0	6432	137.321304663645	1
0	6450	137.839794385402	1
0	6453	137.848921995301	1
0	6466	138.100100692169	1
0	6479	138.421784261986	1
0	6489	138.556774456717	1
0	6492	138.572790227906	1
0	6498	138.699576653204	1
0	6505	138.845885721031	1
0	6523	139.274505661117	1
0	6526	139.347795919484	1
0	6537	139.481842294799	1
0	6547	139.654175793158	1
0	6555	139.761256663377	1
0	6575	140.402218429299	1
0	6578	140.440477638479	1
0	6589	140.6479266573	1
0	6599	140.776908355533	1
0	6602	140.784108921483	1
0	6615	141.090278605272	1
0	6623	141.202843645635	1
0	6633	141.365423317872	1
0	6640	141.508100174432	1
0	6643	141.542939206507	1
0	6652	141.69658987488	1
0	6656	141.727646991981	1
0	6670	141.956406067805	1
0	6680	142.166063888796	1
0	6683	142.231098062894	1
0	6694	142.386066538795	1
0	6697	142.413657185181	1
0	6703	142.49246869957	1
0	6710	142.592207166144	1
0	6712	142.624009569504	1
0	6735	143.250575467413	1
0	6740	143.28541521073	1
0	6742	143.32685224718	1
0	6749	143.354569611465	1
0	6767	143.823217597484	1
0	6777	143.99620521937	1
0	6787	144.153172623288	1
0	6790	144.17253211775	1
0	6796	144.29462868675	1
0	6815	144.777431972852	1
0	6830	145.204916310935	1
0	6833	145.222239709824	1
0	6839	145.344960551772	1
0	6855	145.667226951596	1
0	6865	145.924819346611	1
0	6880	146.344146601316	1
0	6888	146.445987098689	1
0	6893	146.465611003215	1
0	6909	146.934384931375	1
0	6917	147.045516714007	1
0	6929	147.279769452996	1
0	6937	147.407964162049	1
0	6947	147.648506918815	1
0	6957	147.822100915219	1
0	6962	147.901517105223	1
0	6976	148.153445339348	1
0	6986	148.436202005256	1
0	6989	148.441690425342	1
0	7000	148.643844257962	1
0	7012	148.906748677579	1
0	7018	148.96164138198	1
0	7031	149.252953424295	1
0	7034	149.287952433939	1
0	7036	149.289915321219	1
0	7052	149.608226545778	1
0	7057	149.6819431337	1
0	7078	150.321594129054	1
0	7084	150.374612749335	1
0	7090	150.497161838308	1
0	7099	150.637166965531	1
0	7109	150.815967246067	1
0	7129	151.430582290624	1
0	7144	151.820577672993	1
0	7154	151.983781385786	1
0	7161	152.105992898043	1
0	7164	152.126503276644	1
0	7185	152.733291791124	1
0	7195	152.927693969336	1
0	7205	153.099180989859	1
0	7220	153.496768880828	1
0	7233	153.840582743186	1
0	7238	153.874890468661	1
0	7257	154.353926426539	1
0	7284	155.330626224608	1
0	7299	155.66867321556	1
0	7302	155.686439692091	1
0	7304	155.721171004733	1
0	7306	155.74101531003	1
0	7317	155.939271211182	1
0	7328	156.140081445958	1
0	7335	156.241725336769	1
0	7356	156.838081268234	1
0	7361	156.851034406792	1
0	7380	157.403155297929	1
0	7387	157.513496020447	1
0	7395	157.632112339912	1
0	7400	157.691978016396	1
0	7414	157.952145501888	1
0	7426	158.330291332774	1
0	7439	158.601435035544	1
0	7442	158.608209406592	1
0	7446	158.681550437351	1
0	7469	159.320302811887	1
0	7472	159.345817526646	1
0	7479	159.433632923764	1
0	7488	159.5509866851	1
0	7492	159.639217647246	1
0	7498	159.738659504515	1
0	7500	159.741952161312	1
0	7509	159.893745116162	1
0	7513	159.934715569591	1
0	7531	160.308043663627	1
0	7539	160.410629061993	1
0	7549	160.564321577471	1
0	7566	161.094159229917	1
0	7576	161.322215005301	1
0	7579	161.343201554767	1
0	7590	161.53110195194	1
0	7610	162.112285872671	1
0	7613	162.133020039999	1
0	7629	162.540278877453	1
0	7635	162.559587133259	1
0	7641	162.680673889587	1
0	7643	162.69219247295	1
0	7650	162.771305593029	1
0	7652	162.789407087059	1
0	7656	162.842394074586	1
0	7660	162.896538952733	1
0	7671	163.087163460386	1
0	7691	163.453071891558	1
0	7694	163.459798675742	1
0	7701	163.60758267973	1
0	7703	163.610728504485	1
0	7714	163.754657484023	1
0	7720	163.866659158689	1
0	7731	164.076527591874	1
0	7734	164.090627981546	1
0	7741	164.247939799924	1
0	7747	164.305994482949	1
0	7749	164.31259527996	1
0	7754	164.36258544329	1
0	7762	164.536157817268	1
0	7769	164.594547031614	1
0	7784	164.889431476571	1
0	7787	164.917526619962	1
0	7794	165.011920237516	1
0	7796	165.014342086528	1
0	7802	165.149413260562	1
0	7807	165.173956262025	1
0	7837	165.973468957369	1
0	7847	166.166187496627	1
0	7850	166.222302681862	1
0	7876	166.954215105554	1
0	7879	167.047999371009	1
0	7910	167.976055370199	1
0	7913	167.985402350546	1
0	7919	168.090608509698	1
0	7924	168.164840853858	1
0	7928	168.200416205429	1
0	7946	168.556603140407	1
0	7956	168.760246656168	1
0	7968	169.089283341583	1
0	7976	169.224072030427	1
0	7986	169.428415699909	1
0	8013	170.337980470281	1
0	8019	170.429786055778	1
0	8023	170.443292887153	1
0	8027	170.518305275777	1
0	8043	170.824093049919	1
0	8055	171.147825263203	1
0	8061	171.215872707126	1
0	8063	171.230483038557	1
0	8069	171.285744077143	1
0	8080	171.515876595729	1
0	8091	171.73311725796	1
0	8097	171.828959796857	1
0	8103	171.885449139249	1
0	8114	172.086435801061	1
0	8124	172.305674313263	1
0	8142	172.828802499747	1
0	8152	172.974478014354	1
0	8167	173.359225728488	1
0	8174	173.469586152816	1
0	8182	173.607288930425	1
0	8192	173.769084869452	1
0	8199	173.880750227305	1
0	8202	173.948419451045	1
0	8218	174.294243378582	1
0	8228	174.539469821029	1
0	8241	174.807525013425	1
0	8248	174.914704772493	1
0	8256	175.03323625608	1
0	8261	175.122664236599	1
0	8285	175.816793252706	1
0	8300	176.169610731144	1
0	8305	176.259858490842	1
0	8324	176.777823719941	1
0	8331	176.879168362721	1
0	8334	176.888588216932	1
0	8348	177.156992165169	1
0	8351	177.209948619837	1
0	8357	177.329182998116	1
0	8364	177.414884518952	1
0	8385	177.96871341552	1
0	8397	178.306157073272	1
0	8403	178.365631778854	1
0	8429	179.21223493812	1
0	8434	179.308410582981	1
0	8458	180.002981724162	1
0	8468	180.241879712864	1
0	8485	180.712546666479	1
0	8503	181.167288099817	1
0	8506	181.237641576903	1
0	8510	181.26344927754	1
0	8541	182.229393327134	1
0	8546	182.284687870443	1
0	8550	182.34206968952	1
0	8555	182.393892140696	1
0	8557	182.416281048925	1
0	8566	182.550757629333	1
0	8591	183.15375128377	1
0	8606	183.59799412041	1
0	8611	183.651157430214	1
0	8615	183.739824309414	1
0	8629	183.973911455417	1
0	8634	184.071215283369	1
0	8638	184.083240957195	1
0	8657	184.580367174064	1
0	8667	184.842759790281	1
0	8672	184.866926069534	1
0	8688	185.293866548442	1
0	8698	185.493326333275	1
0	8704	185.556937242313	1
0	8706	185.585437831443	1
0	8712	185.680740995638	1
0	8719	185.774500133966	1
0	8725	185.868275765092	1
0	8729	185.946708023017	1
0	8745	186.222999838987	1
0	8757	186.45095892032	1
0	8760	186.505270078656	1
0	8774	186.822741524594	1
0	8779	186.860454469444	1
0	8786	187.000663571309	1
0	8792	187.119973554684	1
0	8799	187.190237810992	1
0	8805	187.262853579029	1
0	8821	187.6970987553	1
0	8836	188.062604008863	1
0	8839	188.149336979938	1
0	8846	188.203630973224	1
0	8859	188.471811318142	1
0	8867	188.611398827908	1
0	8877	188.773497457344	1
0	8894	189.344982526907	1
0	8900	189.389991025679	1
0	8911	189.591014155393	1
0	8918	189.750058595655	1
0	8936	190.153975496299	1
0	8943	190.300620564035	1
0	8963	190.864002910028	1
0	8966	190.949785277182	1
0	8980	191.227656978572	1
0	8983	191.232642597718	1
0	8996	191.47315406666	1
0	8999	191.505382582425	1
0	9023	192.193571391942	1
0	9026	192.221850014489	1
0	9059	193.258875899096	1
0	9069	193.505019669302	1
0	9077	193.625250598579	1
0	9089	193.87218657379	1
0	9092	193.886887849274	1
0	9103	194.076108197525	1
0	9106	194.145394863024	1
0	9120	194.368286509367	1
0	9123	194.401345111831	1
0	9129	194.520011225483	1
0	9136	194.628091765003	1
0	9149	194.866288055682	1
0	9152	194.894437086768	1
0	9159	194.989505020696	1
0	9170	195.174832740755	1
0	9173	195.195911966737	1
0	9179	195.292427009769	1
0	9200	195.937490226512	1
0	9218	196.388985584663	1
0	9221	196.404023946496	1
0	9244	197.091148624992	1
0	9247	197.095046483582	1
0	9256	197.253368302503	1
0	9280	198.031550320585	1
0	9285	198.095818381159	1
0	9287	198.127964389272	1
0	9298	198.307374992093	1
0	9305	198.367245592681	1
0	9321	198.82138761416	1
0	9326	198.869936701632	1
0	9333	198.974358962514	1
0	9341	199.14781736628	1
0	9351	199.308444720664	1
1	2	0.159174900913	1
1	8	0.33888697861	1
1	18	0.590073130219	1
1	32	0.961993972634	1
1	40	1.146638598928	1
1	53	1.536947666105	1
1	61	1.694387894101	1
1	74	2.070180704942	1
1	82	2.180390402276	1
1	90	2.375791687555	1
1	100	2.583423547688	1
1	105	2.680449180432	1
1	114	2.795553019809	1
1	117	2.866184847637	1
1	135	3.310889732044	1
1	138	3.322566665863	1
1	162	3.985549121849	1
1	165	4.049220350017	1
1	172	4.145940771007	1
1	176	4.275830040657	1
1	192	4.589609264182	1
1	205	4.924051504247	1
1	212	5.07458632691	1
1	222	5.205362840354	1
1	230	5.373249410934	1
1	235	5.473023812737	1
1	256	5.992674629907	1
1	270	6.354348482762	1
1	273	6.369085553855	1
1	277	6.451401153104	2
1	282	6.469633358329	2
1	291	6.678555859991	1
1	293	6.682640977671	2
1	299	6.774490605122	2
1	315	7.13198813781	1
1	337	7.762022123545	1
1	350	8.063178975272	1
1	353	8.093425146005	1
1	369	8.501487997593	1
1	384	8.909666440775	1
1	397	9.678710814603	1
1	403	9.807052649139	1
1	413	10.128100560551	1
1	427	10.45090097553	1
1	435	10.574686867455	1
1	440	10.721679751693	1
1	453	11.024986946491	1
1	465	11.252174734833	1
1	468	11.277349616721	1
1	480	11.532395157166	1
1	490	11.736681532036	1
1	500	11.911145771044	1
1	503	11.942091707144	1
1	512	12.096258638837	1
1	533	12.675142734434	1
1	544	12.959415670453	1
1	555	13.106981128804	1
1	558	13.129370360931	1
1	562	13.236483504977	1
1	571	13.364822445383	1
1	575	13.426278515814	1
1	580	13.46751917222	2
1	595	13.76517013737	1
1	605	14.032228174295	1
1	613	14.154044658932	1
1	618	14.202854357079	1
1	629	14.370921298201	1
1	632	14.399976903659	1
1	634	14.403770617499	2
1	641	14.482124779634	2
1	652	14.674400967447	1
1	654	14.706828265336	2
1	665	14.896227600771	1
1	667	14.946515987186	2
1	678	15.13842558266	1
1	684	15.236136992522	1
1	705	15.811719996778	1
1	723	16.277502671621	1
1	733	16.506530462561	1
1	740	16.626079677925	1
1	746	16.715183376935	1
1	757	16.905082293634	1
1	764	17.019988774982	1
1	782	17.485258987321	1
1	792	17.724480547212	1
1	795	17.745392792367	1
1	797	17.75781585046	2
1	822	18.457858587351	1
1	835	18.677641080861	1
1	845	18.889407907159	1
1	855	19.111527396296	1
1	858	19.1490126095	1
1	862	19.196253950717	2
1	869	19.284934756441	2
1	873	19.312540494127	2
1	886	19.590349032085	1
1	893	19.666141424942	1
1	901	19.853353736896	1
1	907	19.943774148941	1
1	913	20.022396660402	1
1	924	20.191282219108	1
1	927	20.199118850391	1
1	934	20.314583712552	1
1	945	20.515757913585	1
1	972	21.40665728282	1
1	992	22.045246611231	1
1	998	22.066773632862	1
1	1009	22.278338915532	1
1	1012	22.325199219287	1
1	1023	22.526803068371	1
1	1028	22.561985777456	1
1	1059	23.634005847505	1
1	1069	23.845754390524	1
1	1079	24.020137561249	1
1	1085	24.078553667902	1
1	1091	24.185566603319	1
1	1098	24.311154919517	1
1	1106	24.439911119838	1
1	1112	24.495966521534	1
1	1123	24.691339336348	1
1	1126	24.725964827577	1
1	1132	24.808465073561	1
1	1134	24.831856155519	2
1	1145	25.056489815826	1
1	1159	25.270104255256	1
1	1162	25.346415423931	1
1	1168	25.376157877781	1
1	1182	25.677484944436	1
1	1185	25.721261063737	1
1	1206	26.318699042107	1
1	1211	26.410701833655	1
1	1222	26.627955709831	1
1	1237	26.972022041374	1
1	1240	26.97475495706	1
1	1242	26.995183933365	2
1	1253	27.190204320196	1
1	1267	27.554168104053	1
1	1279	27.778130977204	1
1	1282	27.798337932266	1
1	1306	28.513055606735	1
1	1331	29.262861898652	1
1	1346	29.68392615881	1
1	1353	29.810393478089	1
1	1361	29.952910196756	1
1	1386	30.705295653657	1
1	1389	30.716761038942	1
1	1398	30.902456738322	1
1	1406	31.02244611565	1
1	1419	31.29129517008	1
1	1422	31.295333195709	1
1	1424	31.303328455521	2
1	1430	31.419904133294	2
1	1435	31.486386181487	3
1	1465	32.264700206056	1
1	1468	32.290311559118	1
1	1474	32.379395451502	1
1	1476	32.449630669378	2
1	1487	32.580759926251	1
1	1489	32.606037653536	2
1	1500	32.839412358846	1
1	1507	32.915952548618	1
1	1523	33.340799988018	1
1	1530	33.447776863169	1
1	1548	33.948559219786	1
1	1553	33.961818700082	1
1	1555	34.010697789698	2